1
Atoms. Timestep: 1000000
Ar    1.4102613692638457    0.9647607662828660    1.3209769521273491
